<?xml version="1.0" encoding="UTF-8"?>

<!-- generated on 2025-05-29 16:46:32 by Eclipse SUMO GUI Version 1.23.1
<sumoConfiguration xmlns:xsi="http://www.w3.org/2001/XMLSchema-instance" xsi:noNamespaceSchemaLocation="http://sumo.dlr.de/xsd/sumoConfiguration.xsd">

    <input>
        <net-file value="../simulations/SUMO/grid.net.xml"/>
        <route-files value="../simulations/SUMO/routes.rou.xml"/>
    </input>

    <output>
        <emission-output value="../simulations/results/emissions.xml"/>
        <tripinfo-output value="../simulations/results/tripinfo.xml"/>
    </output>

    <time>
        <begin value="0"/>
        <end value="1000"/>
    </time>

    <processing>
        <waiting-time-memory value="10000"/>
    </processing>

    <traci_server>
        <remote-port value="62599"/>
    </traci_server>

    <gui_only>
        <start value="true"/>
    </gui_only>

</sumoConfiguration>
-->

<emission-export xmlns:xsi="http://www.w3.org/2001/XMLSchema-instance" xsi:noNamespaceSchemaLocation="http://sumo.dlr.de/xsd/emission_file.xsd">
</emission-export>
