<?xml version="1.0" encoding="UTF-8"?>

<!-- generated on 2025-05-23 20:15:06 by Eclipse SUMO GUI Version 1.23.1
<sumoConfiguration xmlns:xsi="http://www.w3.org/2001/XMLSchema-instance" xsi:noNamespaceSchemaLocation="http://sumo.dlr.de/xsd/sumoConfiguration.xsd">

    <input>
        <net-file value="../simulations/sumo/grid.net.xml"/>
        <route-files value="../simulations/sumo/routes.rou.xml"/>
    </input>

    <output>
        <emission-output value="../simulations/results/emissions_quantum.xml"/>
        <tripinfo-output value="../simulations/results/tripinfo_quantum.xml"/>
    </output>

    <time>
        <begin value="0"/>
        <end value="1000"/>
    </time>

    <traci_server>
        <remote-port value="64425"/>
    </traci_server>

    <gui_only>
        <start value="true"/>
    </gui_only>

</sumoConfiguration>
-->

<emission-export xmlns:xsi="http://www.w3.org/2001/XMLSchema-instance" xsi:noNamespaceSchemaLocation="http://sumo.dlr.de/xsd/emission_file.xsd">
    <timestep time="0.00">
        <vehicle id="veh_0" eclass="HBEFA4/PC_petrol_Euro-4" CO2="1521.00" CO="0.00" HC="0.00" NOx="0.61" PMx="0.00" fuel="493.10" electricity="0.00" noise="55.94" route="route_veh_0" type="taxi" waiting="0.00" lane="A0A1_0" pos="5.10" speed="0.00" angle="0.00" x="1.60" y="8.30"/>
    </timestep>
    <timestep time="1.00">
        <vehicle id="veh_0" eclass="HBEFA4/PC_petrol_Euro-4" CO2="3664.34" CO="1.79" HC="0.01" NOx="0.83" PMx="0.06" fuel="1187.88" electricity="0.00" noise="66.11" route="route_veh_0" type="taxi" waiting="0.00" lane="A0A1_0" pos="7.23" speed="2.13" angle="0.00" x="1.60" y="10.43"/>
    </timestep>
    <timestep time="2.00">
        <vehicle id="veh_0" eclass="HBEFA4/PC_petrol_Euro-4" CO2="3819.05" CO="5.08" HC="0.03" NOx="0.99" PMx="0.11" fuel="1238.05" electricity="0.00" noise="65.27" route="route_veh_0" type="taxi" waiting="0.00" lane="A0A1_0" pos="11.12" speed="3.89" angle="0.00" x="1.60" y="14.32"/>
    </timestep>
    <timestep time="3.00">
        <vehicle id="veh_0" eclass="HBEFA4/PC_petrol_Euro-4" CO2="5503.28" CO="17.30" HC="0.11" NOx="1.50" PMx="0.20" fuel="1784.06" electricity="0.00" noise="68.75" route="route_veh_0" type="taxi" waiting="0.00" lane="A0A1_0" pos="17.34" speed="6.22" angle="0.00" x="1.60" y="20.54"/>
        <vehicle id="veh_1" eclass="HBEFA4/PC_petrol_Euro-4" CO2="1521.00" CO="0.00" HC="0.00" NOx="0.61" PMx="0.00" fuel="493.10" electricity="0.00" noise="55.94" route="route_veh_1" type="taxi" waiting="0.00" lane="A0A1_0" pos="5.10" speed="0.00" angle="0.00" x="1.60" y="8.30"/>
    </timestep>
    <timestep time="4.00">
        <vehicle id="veh_0" eclass="HBEFA4/PC_petrol_Euro-4" CO2="7213.92" CO="38.59" HC="0.25" NOx="2.17" PMx="0.31" fuel="2338.63" electricity="0.00" noise="70.96" route="route_veh_0" type="taxi" waiting="0.00" lane="A0A1_0" pos="26.14" speed="8.80" angle="0.00" x="1.60" y="29.34"/>
        <vehicle id="veh_1" eclass="HBEFA4/PC_petrol_Euro-4" CO2="3276.51" CO="1.13" HC="0.01" NOx="0.77" PMx="0.05" fuel="1062.15" electricity="0.00" noise="64.65" route="route_veh_1" type="taxi" waiting="0.00" lane="A0A1_0" pos="6.92" speed="1.82" angle="0.00" x="1.60" y="10.12"/>
    </timestep>
    <timestep time="5.00">
        <vehicle id="veh_0" eclass="HBEFA4/PC_petrol_Euro-4" CO2="7501.55" CO="52.83" HC="0.35" NOx="2.46" PMx="0.40" fuel="2431.88" electricity="0.00" noise="70.43" route="route_veh_0" type="taxi" waiting="0.00" lane="A0A1_0" pos="37.14" speed="11.00" angle="0.00" x="1.60" y="40.34"/>
        <vehicle id="veh_1" eclass="HBEFA4/PC_petrol_Euro-4" CO2="3581.70" CO="3.85" HC="0.03" NOx="0.92" PMx="0.10" fuel="1161.11" electricity="0.00" noise="64.67" route="route_veh_1" type="taxi" waiting="0.00" lane="A0A1_0" pos="10.41" speed="3.49" angle="0.00" x="1.60" y="13.61"/>
    </timestep>
    <timestep time="6.00">
        <vehicle id="veh_0" eclass="HBEFA4/PC_petrol_Euro-4" CO2="5880.04" CO="44.43" HC="0.29" NOx="2.03" PMx="0.43" fuel="1906.22" electricity="0.00" noise="67.88" route="route_veh_0" type="taxi" waiting="0.00" lane="A0A1_0" pos="49.52" speed="12.38" angle="0.00" x="1.60" y="52.72"/>
        <vehicle id="veh_1" eclass="HBEFA4/PC_petrol_Euro-4" CO2="5878.80" CO="18.35" HC="0.12" NOx="1.57" PMx="0.20" fuel="1905.79" electricity="0.00" noise="69.85" route="route_veh_1" type="taxi" waiting="0.00" lane="A0A1_0" pos="16.50" speed="6.09" angle="0.00" x="1.60" y="19.70"/>
        <vehicle id="veh_2" eclass="HBEFA4/PC_petrol_Euro-4" CO2="1521.00" CO="0.00" HC="0.00" NOx="0.61" PMx="0.00" fuel="493.10" electricity="0.00" noise="55.94" route="route_veh_2" type="taxi" waiting="0.00" lane="A0A1_0" pos="5.10" speed="0.00" angle="0.00" x="1.60" y="8.30"/>
    </timestep>
    <timestep time="7.00">
        <vehicle id="veh_0" eclass="HBEFA4/PC_petrol_Euro-4" CO2="6528.78" CO="57.14" HC="0.38" NOx="2.33" PMx="0.49" fuel="2116.53" electricity="0.00" noise="68.78" route="route_veh_0" type="taxi" waiting="0.00" lane="A0A1_0" pos="63.30" speed="13.79" angle="0.00" x="1.60" y="66.50"/>
        <vehicle id="veh_1" eclass="HBEFA4/PC_petrol_Euro-4" CO2="5654.82" CO="25.30" HC="0.17" NOx="1.69" PMx="0.27" fuel="1833.20" electricity="0.00" noise="68.11" route="route_veh_1" type="taxi" waiting="0.00" lane="A0A1_0" pos="24.57" speed="8.07" angle="0.00" x="1.60" y="27.77"/>
        <vehicle id="veh_2" eclass="HBEFA4/PC_petrol_Euro-4" CO2="3753.62" CO="1.96" HC="0.01" NOx="0.85" PMx="0.06" fuel="1216.81" electricity="0.00" noise="66.43" route="route_veh_2" type="taxi" waiting="0.00" lane="A0A1_0" pos="7.29" speed="2.19" angle="0.00" x="1.60" y="10.49"/>
    </timestep>
    <timestep time="8.00">
        <vehicle id="veh_0" eclass="HBEFA4/PC_petrol_Euro-4" CO2="4140.50" CO="32.48" HC="0.22" NOx="1.51" PMx="0.46" fuel="1342.29" electricity="0.00" noise="66.51" route="route_veh_0" type="taxi" waiting="0.00" lane="A0A1_0" pos="77.70" speed="14.40" angle="0.00" x="1.60" y="80.90"/>
        <vehicle id="veh_1" eclass="HBEFA4/PC_petrol_Euro-4" CO2="6348.95" CO="38.34" HC="0.25" NOx="2.03" PMx="0.35" fuel="2058.23" electricity="0.00" noise="68.81" route="route_veh_1" type="taxi" waiting="0.00" lane="A0A1_0" pos="34.57" speed="10.00" angle="0.00" x="1.60" y="37.77"/>
        <vehicle id="veh_2" eclass="HBEFA4/PC_petrol_Euro-4" CO2="3946.22" CO="5.64" HC="0.04" NOx="1.02" PMx="0.12" fuel="1279.28" electricity="0.00" noise="65.62" route="route_veh_2" type="taxi" waiting="0.00" lane="A0A1_0" pos="11.32" speed="4.03" angle="0.00" x="1.60" y="14.52"/>
    </timestep>
    <timestep time="9.00">
        <vehicle id="veh_0" eclass="HBEFA4/PC_petrol_Euro-4" CO2="3077.44" CO="20.75" HC="0.14" NOx="1.13" PMx="0.45" fuel="997.67" electricity="0.00" noise="65.78" route="route_veh_0" type="taxi" waiting="0.00" lane="A0A1_0" pos="92.38" speed="14.68" angle="0.00" x="1.60" y="95.58"/>
        <vehicle id="veh_1" eclass="HBEFA4/PC_petrol_Euro-4" CO2="9080.79" CO="76.48" HC="0.50" NOx="3.11" PMx="0.49" fuel="2943.84" electricity="0.00" noise="72.28" route="route_veh_1" type="taxi" waiting="0.00" lane="A0A1_0" pos="47.05" speed="12.47" angle="0.00" x="1.60" y="50.25"/>
        <vehicle id="veh_2" eclass="HBEFA4/PC_petrol_Euro-4" CO2="4803.53" CO="13.55" HC="0.09" NOx="1.33" PMx="0.19" fuel="1557.21" electricity="0.00" noise="67.04" route="route_veh_2" type="taxi" waiting="0.00" lane="A0A1_0" pos="17.31" speed="5.99" angle="0.00" x="1.60" y="20.51"/>
        <vehicle id="veh_3" eclass="HBEFA4/PC_petrol_Euro-4" CO2="1521.00" CO="0.00" HC="0.00" NOx="0.61" PMx="0.00" fuel="493.10" electricity="0.00" noise="55.94" route="route_veh_3" type="taxi" waiting="0.00" lane="A0A1_0" pos="5.10" speed="0.00" angle="0.00" x="1.60" y="8.30"/>
    </timestep>
    <timestep time="10.00">
        <vehicle id="veh_0" eclass="HBEFA4/PC_petrol_Euro-4" CO2="0.00" CO="0.00" HC="0.00" NOx="0.00" PMx="0.00" fuel="0.00" electricity="0.00" noise="63.09" route="route_veh_0" type="taxi" waiting="0.00" lane="A0A1_0" pos="106.28" speed="13.89" angle="0.00" x="1.60" y="109.48"/>
        <vehicle id="veh_1" eclass="HBEFA4/PC_petrol_Euro-4" CO2="1561.43" CO="2.06" HC="0.02" NOx="0.59" PMx="0.34" fuel="506.21" electricity="0.00" noise="63.14" route="route_veh_1" type="taxi" waiting="0.00" lane="A0A1_0" pos="59.39" speed="12.34" angle="0.00" x="1.60" y="62.59"/>
        <vehicle id="veh_2" eclass="HBEFA4/PC_petrol_Euro-4" CO2="5350.38" CO="22.68" HC="0.15" NOx="1.59" PMx="0.26" fuel="1734.50" electricity="0.00" noise="67.53" route="route_veh_2" type="taxi" waiting="0.00" lane="A0A1_0" pos="25.17" speed="7.86" angle="0.00" x="1.60" y="28.37"/>
        <vehicle id="veh_3" eclass="HBEFA4/PC_petrol_Euro-4" CO2="3075.09" CO="0.84" HC="0.01" NOx="0.74" PMx="0.04" fuel="996.86" electricity="0.00" noise="63.85" route="route_veh_3" type="taxi" waiting="0.00" lane="A0A1_0" pos="6.75" speed="1.65" angle="0.00" x="1.60" y="9.95"/>
    </timestep>
    <timestep time="11.00">
        <vehicle id="veh_0" eclass="HBEFA4/PC_petrol_Euro-4" CO2="4081.27" CO="32.01" HC="0.21" NOx="1.49" PMx="0.46" fuel="1323.09" electricity="0.00" noise="66.50" route="route_veh_0" type="taxi" waiting="0.00" lane="A0A1_0" pos="120.76" speed="14.49" angle="0.00" x="1.60" y="123.96"/>
        <vehicle id="veh_1" eclass="HBEFA4/PC_petrol_Euro-4" CO2="4030.73" CO="27.88" HC="0.19" NOx="1.43" PMx="0.41" fuel="1306.71" electricity="0.00" noise="65.86" route="route_veh_1" type="taxi" waiting="0.00" lane="A0A1_0" pos="72.41" speed="13.02" angle="0.00" x="1.60" y="75.61"/>
        <vehicle id="veh_2" eclass="HBEFA4/PC_petrol_Euro-4" CO2="6475.34" CO="38.70" HC="0.26" NOx="2.05" PMx="0.34" fuel="2099.20" electricity="0.00" noise="69.07" route="route_veh_2" type="taxi" waiting="0.00" lane="A0A1_0" pos="35.03" speed="9.87" angle="0.00" x="1.60" y="38.23"/>
        <vehicle id="veh_3" eclass="HBEFA4/PC_petrol_Euro-4" CO2="4097.79" CO="5.26" HC="0.03" NOx="1.02" PMx="0.11" fuel="1328.41" electricity="0.00" noise="66.38" route="route_veh_3" type="taxi" waiting="0.00" lane="A0A1_0" pos="10.45" speed="3.69" angle="0.00" x="1.60" y="13.65"/>
    </timestep>
    <timestep time="12.00">
        <vehicle id="veh_0" eclass="HBEFA4/PC_petrol_Euro-4" CO2="0.00" CO="0.00" HC="0.00" NOx="0.00" PMx="0.00" fuel="0.00" electricity="0.00" noise="63.50" route="route_veh_0" type="taxi" waiting="0.00" lane="A0A1_0" pos="134.70" speed="13.94" angle="0.00" x="1.60" y="137.90"/>
        <vehicle id="veh_1" eclass="HBEFA4/PC_petrol_Euro-4" CO2="0.00" CO="0.00" HC="0.00" NOx="0.00" PMx="0.00" fuel="0.00" electricity="0.00" noise="61.10" route="route_veh_1" type="taxi" waiting="0.00" lane="A0A1_0" pos="84.39" speed="11.98" angle="0.00" x="1.60" y="87.59"/>
        <vehicle id="veh_2" eclass="HBEFA4/PC_petrol_Euro-4" CO2="5684.02" CO="38.38" HC="0.25" NOx="1.91" PMx="0.38" fuel="1842.67" electricity="0.00" noise="67.57" route="route_veh_2" type="taxi" waiting="0.00" lane="A0A1_0" pos="46.35" speed="11.31" angle="0.00" x="1.60" y="49.55"/>
        <vehicle id="veh_3" eclass="HBEFA4/PC_petrol_Euro-4" CO2="3654.18" CO="7.04" HC="0.05" NOx="1.03" PMx="0.15" fuel="1184.62" electricity="0.00" noise="64.20" route="route_veh_3" type="taxi" waiting="0.00" lane="A0A1_0" pos="15.54" speed="5.09" angle="0.00" x="1.60" y="18.74"/>
        <vehicle id="veh_4" eclass="HBEFA4/PC_petrol_Euro-4" CO2="1521.00" CO="0.00" HC="0.00" NOx="0.61" PMx="0.00" fuel="493.10" electricity="0.00" noise="55.94" route="route_veh_4" type="taxi" waiting="0.00" lane="A0A1_0" pos="5.10" speed="0.00" angle="0.00" x="1.60" y="8.30"/>
    </timestep>
    <timestep time="13.00">
        <vehicle id="veh_0" eclass="HBEFA4/PC_petrol_Euro-4" CO2="3607.94" CO="26.35" HC="0.18" NOx="1.32" PMx="0.45" fuel="1169.65" electricity="0.00" noise="66.05" route="route_veh_0" type="taxi" waiting="0.00" lane="A0A1_0" pos="149.09" speed="14.39" angle="0.00" x="1.60" y="152.29"/>
        <vehicle id="veh_1" eclass="HBEFA4/PC_petrol_Euro-4" CO2="4964.13" CO="37.38" HC="0.25" NOx="1.75" PMx="0.43" fuel="1609.30" electricity="0.00" noise="66.86" route="route_veh_1" type="taxi" waiting="0.00" lane="A0A1_0" pos="97.36" speed="12.97" angle="0.00" x="1.60" y="100.56"/>
        <vehicle id="veh_2" eclass="HBEFA4/PC_petrol_Euro-4" CO2="7618.70" CO="65.77" HC="0.43" NOx="2.67" PMx="0.49" fuel="2469.86" electricity="0.00" noise="70.11" route="route_veh_2" type="taxi" waiting="0.00" lane="A0A1_0" pos="59.51" speed="13.17" angle="0.00" x="1.60" y="62.71"/>
        <vehicle id="veh_3" eclass="HBEFA4/PC_petrol_Euro-4" CO2="4264.70" CO="13.00" HC="0.09" NOx="1.24" PMx="0.20" fuel="1382.54" electricity="0.00" noise="65.42" route="route_veh_3" type="taxi" waiting="0.00" lane="A0A1_0" pos="22.15" speed="6.61" angle="0.00" x="1.60" y="25.35"/>
        <vehicle id="veh_4" eclass="HBEFA4/PC_petrol_Euro-4" CO2="3614.29" CO="1.69" HC="0.01" NOx="0.83" PMx="0.06" fuel="1171.65" electricity="0.00" noise="65.93" route="route_veh_4" type="taxi" waiting="0.00" lane="A0A1_0" pos="7.19" speed="2.09" angle="0.00" x="1.60" y="10.39"/>
    </timestep>
    <timestep time="14.00">
        <vehicle id="veh_0" eclass="HBEFA4/PC_petrol_Euro-4" CO2="0.00" CO="0.00" HC="0.00" NOx="0.00" PMx="0.00" fuel="0.00" electricity="0.00" noise="63.32" route="route_veh_0" type="taxi" waiting="0.00" lane="A0A1_0" pos="162.89" speed="13.80" angle="0.00" x="1.60" y="166.09"/>
        <vehicle id="veh_1" eclass="HBEFA4/PC_petrol_Euro-4" CO2="0.00" CO="0.00" HC="0.00" NOx="0.00" PMx="0.00" fuel="0.00" electricity="0.00" noise="63.03" route="route_veh_1" type="taxi" waiting="0.00" lane="A0A1_0" pos="110.05" speed="12.68" angle="0.00" x="1.60" y="113.25"/>
        <vehicle id="veh_2" eclass="HBEFA4/PC_petrol_Euro-4" CO2="4596.86" CO="36.43" HC="0.24" NOx="1.66" PMx="0.46" fuel="1490.24" electricity="0.00" noise="66.76" route="route_veh_2" type="taxi" waiting="0.00" lane="A0A1_0" pos="73.47" speed="13.95" angle="0.00" x="1.60" y="76.67"/>
        <vehicle id="veh_3" eclass="HBEFA4/PC_petrol_Euro-4" CO2="4382.72" CO="17.36" HC="0.11" NOx="1.34" PMx="0.25" fuel="1420.81" electricity="0.00" noise="65.46" route="route_veh_3" type="taxi" waiting="0.00" lane="A0A1_0" pos="30.11" speed="7.97" angle="0.00" x="1.60" y="33.31"/>
        <vehicle id="veh_4" eclass="HBEFA4/PC_petrol_Euro-4" CO2="4281.96" CO="6.72" HC="0.04" NOx="1.08" PMx="0.12" fuel="1388.12" electricity="0.00" noise="66.66" route="route_veh_4" type="taxi" waiting="0.00" lane="A0A1_0" pos="11.34" speed="4.15" angle="0.00" x="1.60" y="14.54"/>
    </timestep>
    <timestep time="15.00">
        <vehicle id="veh_0" eclass="HBEFA4/PC_petrol_Euro-4" CO2="4842.20" CO="41.15" HC="0.27" NOx="1.77" PMx="0.48" fuel="1569.77" electricity="0.00" noise="67.22" route="route_veh_0" type="taxi" waiting="0.00" lane="A0A1_0" pos="177.50" speed="14.61" angle="0.00" x="1.60" y="180.70"/>
        <vehicle id="veh_1" eclass="HBEFA4/PC_petrol_Euro-4" CO2="0.00" CO="0.00" HC="0.00" NOx="0.00" PMx="0.00" fuel="0.00" electricity="0.00" noise="61.92" route="route_veh_1" type="taxi" waiting="0.00" lane="A0A1_0" pos="122.12" speed="12.08" angle="0.00" x="1.60" y="125.32"/>
        <vehicle id="veh_2" eclass="HBEFA4/PC_petrol_Euro-4" CO2="2205.53" CO="9.92" HC="0.07" NOx="0.81" PMx="0.41" fuel="715.01" electricity="0.00" noise="64.74" route="route_veh_2" type="taxi" waiting="0.00" lane="A0A1_0" pos="87.46" speed="14.00" angle="0.00" x="1.60" y="90.66"/>
        <vehicle id="veh_3" eclass="HBEFA4/PC_petrol_Euro-4" CO2="6440.33" CO="38.78" HC="0.26" NOx="2.05" PMx="0.35" fuel="2087.85" electricity="0.00" noise="68.98" route="route_veh_3" type="taxi" waiting="0.00" lane="A0A1_0" pos="40.06" speed="9.94" angle="0.00" x="1.60" y="43.26"/>
        <vehicle id="veh_4" eclass="HBEFA4/PC_petrol_Euro-4" CO2="6053.80" CO="21.64" HC="0.14" NOx="1.67" PMx="0.22" fuel="1962.53" electricity="0.00" noise="69.82" route="route_veh_4" type="taxi" waiting="0.00" lane="A0A1_0" pos="18.02" speed="6.68" angle="0.00" x="1.60" y="21.22"/>
        <vehicle id="veh_5" eclass="HBEFA4/PC_petrol_Euro-4" CO2="1521.00" CO="0.00" HC="0.00" NOx="0.61" PMx="0.00" fuel="493.10" electricity="0.00" noise="55.94" route="route_veh_5" type="taxi" waiting="0.00" lane="A0A1_0" pos="5.10" speed="0.00" angle="0.00" x="1.60" y="8.30"/>
    </timestep>
    <timestep time="16.00">
        <vehicle id="veh_0" eclass="HBEFA4/PC_petrol_Euro-4" CO2="0.00" CO="0.00" HC="0.00" NOx="0.00" PMx="0.00" fuel="0.00" electricity="0.00" noise="58.81" route="route_veh_0" type="taxi" waiting="0.00" lane="A0A1_0" pos="188.80" speed="11.31" angle="0.00" x="1.60" y="192.00"/>
        <vehicle id="veh_1" eclass="HBEFA4/PC_petrol_Euro-4" CO2="3887.07" CO="25.71" HC="0.17" NOx="1.37" PMx="0.40" fuel="1260.14" electricity="0.00" noise="65.59" route="route_veh_1" type="taxi" waiting="0.00" lane="A0A1_0" pos="134.85" speed="12.73" angle="0.00" x="1.60" y="138.05"/>
        <vehicle id="veh_2" eclass="HBEFA4/PC_petrol_Euro-4" CO2="1540.77" CO="2.45" HC="0.02" NOx="0.58" PMx="0.39" fuel="499.51" electricity="0.00" noise="64.17" route="route_veh_2" type="taxi" waiting="0.00" lane="A0A1_0" pos="101.30" speed="13.84" angle="0.00" x="1.60" y="104.50"/>
        <vehicle id="veh_3" eclass="HBEFA4/PC_petrol_Euro-4" CO2="6503.83" CO="47.22" HC="0.31" NOx="2.19" PMx="0.41" fuel="2108.44" electricity="0.00" noise="68.75" route="route_veh_3" type="taxi" waiting="0.00" lane="A0A1_0" pos="51.70" speed="11.65" angle="0.00" x="1.60" y="54.90"/>
        <vehicle id="veh_4" eclass="HBEFA4/PC_petrol_Euro-4" CO2="6880.32" CO="37.60" HC="0.25" NOx="2.10" PMx="0.32" fuel="2230.48" electricity="0.00" noise="70.16" route="route_veh_4" type="taxi" waiting="0.00" lane="A0A1_0" pos="27.06" speed="9.04" angle="0.00" x="1.60" y="30.26"/>
        <vehicle id="veh_5" eclass="HBEFA4/PC_petrol_Euro-4" CO2="3496.08" CO="1.48" HC="0.01" NOx="0.81" PMx="0.06" fuel="1133.33" electricity="0.00" noise="65.49" route="route_veh_5" type="taxi" waiting="0.00" lane="A0A1_0" pos="7.10" speed="2.00" angle="0.00" x="1.60" y="10.30"/>
    </timestep>
    <timestep time="17.00">
        <vehicle id="veh_0" eclass="HBEFA4/PC_petrol_Euro-4" CO2="0.00" CO="0.00" HC="0.00" NOx="0.00" PMx="0.00" fuel="0.00" electricity="0.00" noise="52.21" route="route_veh_0" type="taxi" waiting="0.00" lane=":A1_6_0" pos="6.01" speed="6.81" angle="32.60" x="4.28" y="197.77"/>
        <vehicle id="veh_1" eclass="HBEFA4/PC_petrol_Euro-4" CO2="1841.60" CO="5.02" HC="0.04" NOx="0.68" PMx="0.36" fuel="597.03" electricity="0.00" noise="63.62" route="route_veh_1" type="taxi" waiting="0.00" lane="A0A1_0" pos="147.54" speed="12.69" angle="0.00" x="1.60" y="150.74"/>
        <vehicle id="veh_2" eclass="HBEFA4/PC_petrol_Euro-4" CO2="0.00" CO="0.00" HC="0.00" NOx="0.00" PMx="0.00" fuel="0.00" electricity="0.00" noise="63.67" route="route_veh_2" type="taxi" waiting="0.00" lane="A0A1_0" pos="114.84" speed="13.54" angle="0.00" x="1.60" y="118.04"/>
        <vehicle id="veh_3" eclass="HBEFA4/PC_petrol_Euro-4" CO2="8310.54" CO="75.84" HC="0.50" NOx="2.95" PMx="0.53" fuel="2694.14" electricity="0.00" noise="70.92" route="route_veh_3" type="taxi" waiting="0.00" lane="A0A1_0" pos="65.35" speed="13.64" angle="0.00" x="1.60" y="68.55"/>
        <vehicle id="veh_4" eclass="HBEFA4/PC_petrol_Euro-4" CO2="8680.85" CO="66.72" HC="0.44" NOx="2.89" PMx="0.45" fuel="2814.19" electricity="0.00" noise="72.07" route="route_veh_4" type="taxi" waiting="0.00" lane="A0A1_0" pos="38.63" speed="11.57" angle="0.00" x="1.60" y="41.83"/>
        <vehicle id="veh_5" eclass="HBEFA4/PC_petrol_Euro-4" CO2="3367.49" CO="3.45" HC="0.02" NOx="0.89" PMx="0.10" fuel="1091.67" electricity="0.00" noise="63.89" route="route_veh_5" type="taxi" waiting="0.00" lane="A0A1_0" pos="10.58" speed="3.49" angle="0.00" x="1.60" y="13.78"/>
    </timestep>
    <timestep time="18.00">
        <vehicle id="veh_0" eclass="HBEFA4/PC_petrol_Euro-4" CO2="0.00" CO="0.00" HC="0.00" NOx="0.00" PMx="0.00" fuel="0.00" electricity="0.00" noise="57.32" route="route_veh_0" type="taxi" waiting="0.00" lane="A1B1_0" pos="3.27" speed="6.29" angle="87.18" x="10.47" y="198.40"/>
        <vehicle id="veh_1" eclass="HBEFA4/PC_petrol_Euro-4" CO2="2997.24" CO="17.19" HC="0.12" NOx="1.08" PMx="0.39" fuel="971.67" electricity="0.00" noise="64.84" route="route_veh_1" type="taxi" waiting="0.00" lane="A0A1_0" pos="160.56" speed="13.02" angle="0.00" x="1.60" y="163.76"/>
        <vehicle id="veh_2" eclass="HBEFA4/PC_petrol_Euro-4" CO2="2101.66" CO="8.39" HC="0.06" NOx="0.77" PMx="0.39" fuel="681.34" electricity="0.00" noise="64.39" route="route_veh_2" type="taxi" waiting="0.00" lane="A0A1_0" pos="128.40" speed="13.56" angle="0.00" x="1.60" y="131.60"/>
        <vehicle id="veh_3" eclass="HBEFA4/PC_petrol_Euro-4" CO2="4190.94" CO="32.76" HC="0.22" NOx="1.52" PMx="0.46" fuel="1358.65" electricity="0.00" noise="66.51" route="route_veh_3" type="taxi" waiting="0.00" lane="A0A1_0" pos="79.63" speed="14.28" angle="0.00" x="1.60" y="82.83"/>
        <vehicle id="veh_4" eclass="HBEFA4/PC_petrol_Euro-4" CO2="10522.56" CO="103.79" HC="0.68" NOx="3.77" PMx="0.60" fuel="3411.24" electricity="0.00" noise="73.58" route="route_veh_4" type="taxi" waiting="0.00" lane="A0A1_0" pos="52.79" speed="14.16" angle="0.00" x="1.60" y="55.99"/>
        <vehicle id="veh_5" eclass="HBEFA4/PC_petrol_Euro-4" CO2="4782.79" CO="12.09" HC="0.08" NOx="1.29" PMx="0.17" fuel="1550.49" electricity="0.00" noise="67.24" route="route_veh_5" type="taxi" waiting="0.00" lane="A0A1_0" pos="16.13" speed="5.54" angle="0.00" x="1.60" y="19.33"/>
        <vehicle id="veh_6" eclass="HBEFA4/PC_petrol_Euro-4" CO2="1521.00" CO="0.00" HC="0.00" NOx="0.61" PMx="0.00" fuel="493.10" electricity="0.00" noise="55.94" route="route_veh_6" type="taxi" waiting="0.00" lane="A0A1_0" pos="5.10" speed="0.00" angle="0.00" x="1.60" y="8.30"/>
    </timestep>
    <timestep time="19.00">
        <vehicle id="veh_0" eclass="HBEFA4/PC_petrol_Euro-4" CO2="4200.43" CO="15.33" HC="0.10" NOx="1.28" PMx="0.23" fuel="1361.71" electricity="0.00" noise="65.11" route="route_veh_0" type="taxi" waiting="0.00" lane="A1B1_0" pos="10.87" speed="7.61" angle="90.00" x="18.07" y="198.40"/>
        <vehicle id="veh_1" eclass="HBEFA4/PC_petrol_Euro-4" CO2="0.00" CO="0.00" HC="0.00" NOx="0.00" PMx="0.00" fuel="0.00" electricity="0.00" noise="62.63" route="route_veh_1" type="taxi" waiting="0.00" lane="A0A1_0" pos="173.14" speed="12.58" angle="0.00" x="1.60" y="176.34"/>
        <vehicle id="veh_2" eclass="HBEFA4/PC_petrol_Euro-4" CO2="2957.32" CO="18.06" HC="0.12" NOx="1.08" PMx="0.42" fuel="958.73" electricity="0.00" noise="65.24" route="route_veh_2" type="taxi" waiting="0.00" lane="A0A1_0" pos="142.24" speed="13.84" angle="0.00" x="1.60" y="145.44"/>
        <vehicle id="veh_3" eclass="HBEFA4/PC_petrol_Euro-4" CO2="0.00" CO="0.00" HC="0.00" NOx="0.00" PMx="0.00" fuel="0.00" electricity="0.00" noise="63.96" route="route_veh_3" type="taxi" waiting="0.00" lane="A0A1_0" pos="93.60" speed="13.97" angle="0.00" x="1.60" y="96.80"/>
        <vehicle id="veh_4" eclass="HBEFA4/PC_petrol_Euro-4" CO2="2410.91" CO="12.50" HC="0.09" NOx="0.89" PMx="0.42" fuel="781.59" electricity="0.00" noise="65.05" route="route_veh_4" type="taxi" waiting="0.00" lane="A0A1_0" pos="67.05" speed="14.26" angle="0.00" x="1.60" y="70.25"/>
        <vehicle id="veh_5" eclass="HBEFA4/PC_petrol_Euro-4" CO2="5725.90" CO="24.02" HC="0.16" NOx="1.67" PMx="0.25" fuel="1856.24" electricity="0.00" noise="68.45" route="route_veh_5" type="taxi" waiting="0.00" lane="A0A1_0" pos="23.78" speed="7.65" angle="0.00" x="1.60" y="26.98"/>
        <vehicle id="veh_6" eclass="HBEFA4/PC_petrol_Euro-4" CO2="2910.00" CO="0.64" HC="0.00" NOx="0.72" PMx="0.04" fuel="943.34" electricity="0.00" noise="63.17" route="route_veh_6" type="taxi" waiting="0.00" lane="A0A1_0" pos="6.61" speed="1.51" angle="0.00" x="1.60" y="9.81"/>
    </timestep>
    <timestep time="20.00">
        <vehicle id="veh_0" eclass="HBEFA4/PC_petrol_Euro-4" CO2="7765.15" CO="49.94" HC="0.33" NOx="2.46" PMx="0.37" fuel="2517.33" electricity="0.00" noise="71.25" route="route_veh_0" type="taxi" waiting="0.00" lane="A1B1_0" pos="20.98" speed="10.11" angle="90.00" x="28.18" y="198.40"/>
        <vehicle id="veh_1" eclass="HBEFA4/PC_petrol_Euro-4" CO2="2371.35" CO="10.38" HC="0.07" NOx="0.86" PMx="0.37" fuel="768.77" electricity="0.00" noise="64.09" route="route_veh_1" type="taxi" waiting="0.00" lane="A0A1_0" pos="185.85" speed="12.71" angle="0.00" x="1.60" y="189.05"/>
        <vehicle id="veh_2" eclass="HBEFA4/PC_petrol_Euro-4" CO2="0.00" CO="0.00" HC="0.00" NOx="0.00" PMx="0.00" fuel="0.00" electricity="0.00" noise="61.96" route="route_veh_2" type="taxi" waiting="0.00" lane="A0A1_0" pos="155.11" speed="12.86" angle="0.00" x="1.60" y="158.31"/>
        <vehicle id="veh_3" eclass="HBEFA4/PC_petrol_Euro-4" CO2="5616.78" CO="51.47" HC="0.34" NOx="2.06" PMx="0.52" fuel="1820.88" electricity="0.00" noise="68.05" route="route_veh_3" type="taxi" waiting="0.00" lane="A0A1_0" pos="108.57" speed="14.97" angle="0.00" x="1.60" y="111.77"/>
        <vehicle id="veh_4" eclass="HBEFA4/PC_petrol_Euro-4" CO2="0.00" CO="0.00" HC="0.00" NOx="0.00" PMx="0.00" fuel="0.00" electricity="0.00" noise="63.86" route="route_veh_4" type="taxi" waiting="0.00" lane="A0A1_0" pos="80.96" speed="13.92" angle="0.00" x="1.60" y="84.16"/>
        <vehicle id="veh_5" eclass="HBEFA4/PC_petrol_Euro-4" CO2="7309.87" CO="45.73" HC="0.30" NOx="2.31" PMx="0.36" fuel="2369.74" electricity="0.00" noise="70.50" route="route_veh_5" type="taxi" waiting="0.00" lane="A0A1_0" pos="33.77" speed="9.99" angle="0.00" x="1.60" y="36.97"/>
        <vehicle id="veh_6" eclass="HBEFA4/PC_petrol_Euro-4" CO2="4111.13" CO="5.06" HC="0.03" NOx="1.01" PMx="0.10" fuel="1332.73" electricity="0.00" noise="66.51" route="route_veh_6" type="taxi" waiting="0.00" lane="A0A1_0" pos="10.20" speed="3.59" angle="0.00" x="1.60" y="13.40"/>
    </timestep>
    <timestep time="21.00">
        <vehicle id="veh_0" eclass="HBEFA4/PC_petrol_Euro-4" CO2="8425.44" CO="69.38" HC="0.46" NOx="2.88" PMx="0.48" fuel="2731.39" electricity="0.00" noise="71.38" route="route_veh_0" type="taxi" waiting="0.00" lane="A1B1_0" pos="33.35" speed="12.37" angle="90.00" x="40.55" y="198.40"/>
        <vehicle id="veh_1" eclass="HBEFA4/PC_petrol_Euro-4" CO2="0.00" CO="0.00" HC="0.00" NOx="0.00" PMx="0.00" fuel="0.00" electricity="0.00" noise="61.48" route="route_veh_1" type="taxi" waiting="0.00" lane=":A1_7_0" pos="8.18" speed="11.93" angle="0.00" x="1.60" y="200.98"/>
        <vehicle id="veh_2" eclass="HBEFA4/PC_petrol_Euro-4" CO2="2656.12" CO="13.74" HC="0.09" NOx="0.96" PMx="0.39" fuel="861.09" electricity="0.00" noise="64.56" route="route_veh_2" type="taxi" waiting="0.00" lane="A0A1_0" pos="168.19" speed="13.08" angle="0.00" x="1.60" y="171.39"/>
        <vehicle id="veh_3" eclass="HBEFA4/PC_petrol_Euro-4" CO2="0.00" CO="0.00" HC="0.00" NOx="0.00" PMx="0.00" fuel="0.00" electricity="0.00" noise="62.62" route="route_veh_3" type="taxi" waiting="0.00" lane="A0A1_0" pos="122.42" speed="13.85" angle="0.00" x="1.60" y="125.62"/>
        <vehicle id="veh_4" eclass="HBEFA4/PC_petrol_Euro-4" CO2="3224.08" CO="21.73" HC="0.15" NOx="1.18" PMx="0.44" fuel="1045.21" electricity="0.00" noise="65.67" route="route_veh_4" type="taxi" waiting="0.00" lane="A0A1_0" pos="95.22" speed="14.26" angle="0.00" x="1.60" y="98.42"/>
        <vehicle id="veh_5" eclass="HBEFA4/PC_petrol_Euro-4" CO2="5084.47" CO="32.72" HC="0.22" NOx="1.71" PMx="0.37" fuel="1648.31" electricity="0.00" noise="66.70" route="route_veh_5" type="taxi" waiting="0.00" lane="A0A1_0" pos="44.99" speed="11.22" angle="0.00" x="1.60" y="48.19"/>
        <vehicle id="veh_6" eclass="HBEFA4/PC_petrol_Euro-4" CO2="3596.85" CO="6.62" HC="0.04" NOx="1.01" PMx="0.14" fuel="1166.03" electricity="0.00" noise="64.07" route="route_veh_6" type="taxi" waiting="0.00" lane="A0A1_0" pos="15.17" speed="4.97" angle="0.00" x="1.60" y="18.37"/>
        <vehicle id="veh_7" eclass="HBEFA4/PC_petrol_Euro-4" CO2="1521.00" CO="0.00" HC="0.00" NOx="0.61" PMx="0.00" fuel="493.10" electricity="0.00" noise="55.94" route="route_veh_7" type="taxi" waiting="0.00" lane="A0A1_0" pos="5.10" speed="0.00" angle="0.00" x="1.60" y="8.30"/>
    </timestep>
    <timestep time="22.00">
        <vehicle id="veh_0" eclass="HBEFA4/PC_petrol_Euro-4" CO2="6994.32" CO="62.86" HC="0.42" NOx="2.50" PMx="0.51" fuel="2267.45" electricity="0.00" noise="69.32" route="route_veh_0" type="taxi" waiting="0.00" lane="A1B1_0" pos="47.27" speed="13.91" angle="90.00" x="54.47" y="198.40"/>
        <vehicle id="veh_1" eclass="HBEFA4/PC_petrol_Euro-4" CO2="1631.91" CO="2.52" HC="0.02" NOx="0.61" PMx="0.33" fuel="529.06" electricity="0.00" noise="62.85" route="route_veh_1" type="taxi" waiting="0.00" lane="A1A2_0" pos="5.62" speed="11.83" angle="0.00" x="1.60" y="212.82"/>
        <vehicle id="veh_2" eclass="HBEFA4/PC_petrol_Euro-4" CO2="4015.64" CO="29.39" HC="0.20" NOx="1.44" PMx="0.44" fuel="1301.82" electricity="0.00" noise="66.11" route="route_veh_2" type="taxi" waiting="0.00" lane="A0A1_0" pos="181.90" speed="13.71" angle="0.00" x="1.60" y="185.10"/>
        <vehicle id="veh_3" eclass="HBEFA4/PC_petrol_Euro-4" CO2="2065.95" CO="8.25" HC="0.06" NOx="0.76" PMx="0.40" fuel="669.76" electricity="0.00" noise="64.55" route="route_veh_3" type="taxi" waiting="0.00" lane="A0A1_0" pos="136.28" speed="13.86" angle="0.00" x="1.60" y="139.48"/>
        <vehicle id="veh_4" eclass="HBEFA4/PC_petrol_Euro-4" CO2="1414.23" CO="1.13" HC="0.01" NOx="0.53" PMx="0.39" fuel="458.49" electricity="0.00" noise="64.24" route="route_veh_4" type="taxi" waiting="0.00" lane="A0A1_0" pos="109.28" speed="14.06" angle="0.00" x="1.60" y="112.48"/>
        <vehicle id="veh_5" eclass="HBEFA4/PC_petrol_Euro-4" CO2="0.00" CO="0.00" HC="0.00" NOx="0.00" PMx="0.00" fuel="0.00" electricity="0.00" noise="60.87" route="route_veh_5" type="taxi" waiting="0.00" lane="A0A1_0" pos="55.66" speed="10.67" angle="0.00" x="1.60" y="58.86"/>