<?xml version="1.0" encoding="UTF-8"?>

<!-- generated on 2025-05-22 20:34:26 by Eclipse SUMO GUI Version 1.23.1
<sumoConfiguration xmlns:xsi="http://www.w3.org/2001/XMLSchema-instance" xsi:noNamespaceSchemaLocation="http://sumo.dlr.de/xsd/sumoConfiguration.xsd">

    <input>
        <net-file value="../simulations/sumo/grid.net.xml"/>
        <route-files value="../simulations/sumo/routes.rou.xml"/>
    </input>

    <output>
        <emission-output value="../simulations/results/emissions_quantum.xml"/>
        <tripinfo-output value="../simulations/results/tripinfo_quantum.xml"/>
    </output>

    <time>
        <begin value="0"/>
        <end value="1000"/>
    </time>

    <traci_server>
        <remote-port value="57821"/>
    </traci_server>

    <gui_only>
        <start value="true"/>
    </gui_only>

</sumoConfiguration>
-->

<tripinfos xmlns:xsi="http://www.w3.org/2001/XMLSchema-instance" xsi:noNamespaceSchemaLocation="http://sumo.dlr.de/xsd/tripinfo_file.xsd">
</tripinfos>
